LAMMPS data file via write_data, version 29 Oct 2020, timestep = 1000000

3889 atoms
3 atom types
10368 angles
2 angle types

-22.954 22.954 xlo xhi
-22.954 22.954 ylo yhi
-22.954 22.954 zlo zhi
0.0 0.0 0.0 xy xz yz

Masses

1 15.999
2 28.0855
3 16.04

Angle Coeffs # harmonic

1 17.8827 142.71
2 17.2312 109.47

Atoms # full

1460 0 1 -1.05 -3.738702326493783 -22.652676644012868 -16.397358984465903 0 0 0
449 0 2 2.1 -21.823260515522396 -21.912724034995207 20.447636498241046 0 0 0
305 0 2 2.1 -21.858491973536356 -21.741133931342453 5.123657227685431 0 0 0
158 0 1 -1.05 -22.834648762290822 -21.70113028221156 -11.526073011182913 0 0 0
161 0 2 2.1 -21.844428996390377 -21.83410219186969 -10.239738782082751 0 0 0
446 0 1 -1.05 -22.746724074098143 -21.687050896195522 19.17554153613733 0 0 0
511 0 1 -1.05 -22.56352327755223 -21.04789273303371 21.640068168440216 0 0 0
302 0 1 -1.05 -22.7522106822784 -21.713723138911043 3.7961580564047566 0 0 0
367 0 1 -1.05 -22.640105222405356 -20.831475752335983 6.158915135059139 0 0 0
223 0 1 -1.05 -22.70803696895953 -20.984605991492586 -9.116850138589083 0 0 0
734 0 1 -1.05 -22.603031550259505 -6.436081761137672 3.8905172766394536 0 0 0
716 0 1 -1.05 -22.74435858297415 -1.1011113544961724 -18.975549148341944 0 0 0
349 0 1 -1.05 -22.595567367022177 -17.12301208655265 -1.3767231492412222 0 0 0
1004 0 1 -1.05 -22.775711437160126 -1.1199513492050315 11.382468912778329 0 0 0
1310 0 1 -1.05 -22.749794860453814 8.758284988912344 19.15277762383967 0 0 0
1166 0 1 -1.05 -22.592318576913986 8.988643227460468 3.76749161546185 0 0 0
878 0 1 -1.05 -22.71235726055258 -6.550286602165343 19.09776163403881 0 0 0
590 0 1 -1.05 -22.6612895762264 -6.481438640289632 -11.458368575866757 0 0 0
1148 0 1 -1.05 -22.835746115318774 14.170893109990942 -19.07989871613531 0 0 0
572 0 1 -1.05 -22.79470794734222 -16.662761178397687 11.548426206954048 0 0 0
493 0 1 -1.05 -22.70818248277606 -17.40092687237283 13.974355363812094 0 0 0
637 0 1 -1.05 -22.58586224357809 -1.9570991865091578 -16.65573390397714 0 0 0
1069 0 1 -1.05 -22.527803562819617 13.28132562477861 -16.722254380567612 0 0 0
205 0 1 -1.05 -22.665949253354093 -17.089710370692472 -16.633325701835382 0 0 0
1357 0 1 -1.05 -22.456136405190694 13.318408962655553 13.939956478253471 0 0 0
943 0 1 -1.05 -22.496459246958945 -5.7187595716052435 21.46435397874854 0 0 0
781 0 1 -1.05 -22.657214935452057 -1.9164566970537997 -1.439150758866873 0 0 0
655 0 1 -1.05 -22.634492081071993 -5.7821933026636785 -9.043265989376659 0 0 0
1375 0 1 -1.05 -22.494905764916776 9.538299297321394 21.507197185653723 0 0 0
1231 0 1 -1.05 -22.509003420044632 9.586960983132087 6.1883335619930655 0 0 0
799 0 1 -1.05 -22.442401394154846 -5.709401186651391 6.276960411493356 0 0 0
925 0 1 -1.05 -22.46156853841463 -2.027825673357242 13.771508298059203 0 0 0
1213 0 1 -1.05 -22.653029843022832 13.249745598876565 -1.3580721420687318 0 0 0
1087 0 1 -1.05 -22.59559902815353 9.404359805816874 -9.096648554902922 0 0 0
428 0 1 -1.05 -22.838383610741708 -16.288370275820622 -3.771345531257243 0 0 0
1436 0 1 -1.05 -22.691573474750136 14.210349188916595 11.601125903125016 0 0 0
796 0 1 -1.05 -21.936159315146956 2.931152673667789 5.297622155648288 0 0 0
1066 0 1 -1.05 -22.023722951273903 19.874405198378426 -17.68291374442387 0 0 0
1145 0 2 2.1 -21.97317050388261 17.85231393922281 -14.178321843931723 0 0 0
1210 0 1 -1.05 -21.910602810010158 19.97935598308979 -2.4046195066216995 0 0 0
1372 0 1 -1.05 -21.968547693328986 18.126837156782933 20.722001984383915 0 0 0
1354 0 1 -1.05 -21.867274150724118 19.862618407313946 13.042919068659096 0 0 0
634 0 1 -1.05 -21.9849293195662 4.714000495326207 -17.67476310812381 0 0 0
858 0 2 2.1 -21.858153255153812 1.8132254943630777 4.176103530244539 0 0 0
652 0 1 -1.05 -22.015540017605783 3.066153751585464 -9.860693296249151 0 0 0
1001 0 2 2.1 -21.81996928884047 2.5915995568599506 16.44902401094712 0 0 0
508 0 1 -1.05 -21.90817033015865 -12.260130698233787 20.616320293687785 0 0 0
1084 0 1 -1.05 -21.966423744777945 18.326597790609213 -10.019023246793777 0 0 0
346 0 1 -1.05 -22.12395193602975 -10.540376143640342 -2.2499204039647545 0 0 0
940 0 1 -1.05 -21.797815494319114 2.952136581556843 20.599595860309073 0 0 0
569 0 2 2.1 -21.92540841491077 -12.920141202709575 16.474204342798778 0 0 0
1163 0 2 2.1 -21.832542040037687 20.431411007499584 -6.471499860485473 0 0 0
1307 0 2 2.1 -21.871847026591226 20.395134482291233 8.945804743290136 0 0 0
857 0 2 2.1 -22.05995558232546 2.49159845279112 1.237887906341161 0 0 0
778 0 1 -1.05 -22.015078974611168 4.73338347680431 -2.343357432421186 0 0 0
426 0 2 2.1 -21.872006421444233 -13.475206596218479 4.148871573317447 0 0 0
875 0 2 2.1 -21.79997496963611 5.163644459638782 8.756154991734068 0 0 0
490 0 1 -1.05 -22.036250243630125 -10.776380647514687 12.93184071827369 0 0 0
1289 0 2 2.1 -21.72159299486299 17.754669310988085 1.2072666783659294 0 0 0
1019 0 2 2.1 -21.953885007754675 20.656261078954095 -21.671323459866834 0 0 0
425 0 2 2.1 -21.98659510499588 -12.806410138110575 1.2175422016888255 0 0 0
1228 0 1 -1.05 -21.97009204264784 18.225794210385878 5.3533317065172135 0 0 0
922 0 1 -1.05 -21.821957502643546 4.726815522276247 12.923463097487968 0 0 0
443 0 2 2.1 -21.9417760497027 -10.07607984547296 8.790437524242982 0 0 0
731 0 2 2.1 -21.7726921544123 5.215074470104803 -6.365378386117669 0 0 0
1433 0 2 2.1 -21.771170555248045 17.865597096622658 16.604983263408336 0 0 0
364 0 1 -1.05 -22.168967708917343 -12.472586474357694 5.370892181730543 0 0 0
1002 0 2 2.1 -21.67477237796826 1.9019330242318233 19.38442706484522 0 0 0
566 0 1 -1.05 -21.841434287892564 -11.614838296318474 15.54102426666887 0 0 0
570 0 2 2.1 -21.805101254629882 -13.326206847136964 19.42637348140891 0 0 0
281 0 2 2.1 -22.18250776367752 -12.734765461415495 -14.049265981718241 0 0 0
1146 0 2 2.1 -21.862282636115655 17.2896488628067 -11.227712135340234 0 0 0
732 0 2 2.1 -21.718729905805727 5.827150763911241 -3.520114424192652 0 0 0
1164 0 2 2.1 -21.838576556662957 21.032849567343433 -3.573898467656928 0 0 0
1160 0 1 -1.05 -21.70538405184988 19.180622470752184 -7.39752305852199 0 0 0
587 0 2 2.1 -22.043336163127943 5.297116377067038 -21.752422986772732 0 0 0
1290 0 2 2.1 -21.828830545772146 17.24073737614693 4.091277415653725 0 0 0
1286 0 1 -1.05 -21.541092465020377 19.03121106231235 0.23769582690381696 0 0 0
714 0 2 2.1 -21.926672250111277 2.1083825694572553 -11.205284576731486 0 0 0
728 0 1 -1.05 -21.684369253276333 3.858189559402671 -7.19316947768432 0 0 0
1430 0 1 -1.05 -21.4442212138676 19.10575918099751 15.660377122119819 0 0 0
584 0 1 -1.05 -21.887062090850396 3.9924953167163864 -22.669332818910945 0 0 0
202 0 1 -1.05 -22.342264214211383 -10.347513410255894 -17.670564901512137 0 0 0
220 0 1 -1.05 -22.173344867650865 -12.168284175520126 -9.85374616853593 0 0 0
1020 0 2 2.1 -22.000362145485987 21.040190411342557 -18.744786663852345 0 0 0
713 0 2 2.1 -21.9922994374935 2.6580265505056246 -14.075889376138823 0 0 0
299 0 2 2.1 -22.024255942171074 -9.935443232873073 -6.401815008259231 0 0 0
156 0 2 2.1 -21.99418896815167 -9.315271036909717 -18.91285307067832 0 0 0
155 0 2 2.1 -22.02724944678318 -9.961468866010318 -21.863127056381305 0 0 0
710 0 1 -1.05 -21.895925774491076 3.890416938899527 -15.079900217474894 0 0 0
1169 0 2 2.1 -21.69319242329874 8.774753297251777 5.060625304531872 0 0 0
588 0 2 2.1 -21.88011114025817 5.786072027126163 -18.86641386735646 0 0 0
854 0 1 -1.05 -21.92701041684585 3.787913995085404 0.2885819852564744 0 0 0
1304 0 1 -1.05 -21.723989478524828 19.0760313988799 7.980654263832626 0 0 0
575 0 2 2.1 -21.8867710961679 -16.451461033879067 12.91193592227392 0 0 0
422 0 1 -1.05 -21.954444614247436 -11.502838329246122 0.2963909132805682 0 0 0
440 0 1 -1.05 -22.021061244800823 -11.382368951033387 7.8280910403363 0 0 0
1142 0 1 -1.05 -21.793932032683273 19.114537566513064 -15.16931512038002 0 0 0
1025 0 2 2.1 -21.867888163270564 8.515317374715295 -10.264448737352964 0 0 0
881 0 2 2.1 -21.774823134580707 -6.67230889845845 20.34522087526672 0 0 0
863 0 2 2.1 -21.8424097353566 -1.0525409596235065 -2.5613180015153496 0 0 0
444 0 2 2.1 -21.965781879277834 -9.708856712908654 11.756767088938311 0 0 0
1308 0 2 2.1 -21.738509390334094 20.967935954150896 11.816787607344608 0 0 0
872 0 1 -1.05 -21.708457371772898 3.8356180277583434 7.8309803707450385 0 0 0
300 0 2 2.1 -21.959989770388823 -9.529713477716957 -3.470064112506247 0 0 0
1434 0 2 2.1 -21.858416316659344 17.171035053697366 19.46565292288537 0 0 0
282 0 2 2.1 -22.018152326021767 -13.212787679923785 -11.079578965775609 0 0 0
719 0 2 2.1 -21.849116808542668 -1.0248284874086693 -17.720724103005832 0 0 0
1016 0 1 -1.05 -21.841255736771824 19.235030203932375 -22.573294718800664 0 0 0
1151 0 2 2.1 -21.810443004387412 14.209758122455632 -17.879822598859406 0 0 0
431 0 2 2.1 -21.887496307877395 -16.18717771110897 -2.4463131112968135 0 0 0
876 0 2 2.1 -21.6688646721539 5.720674947989053 11.691141017456069 0 0 0
1313 0 2 2.1 -21.75795389331729 8.640306131259006 20.40998037767494 0 0 0
1295 0 2 2.1 -21.806788316743148 14.176517353871155 -2.5135235513810983 0 0 0
296 0 1 -1.05 -21.96309778365922 -11.296550854382403 -7.2805791326541875 0 0 0
1007 0 2 2.1 -21.72655111988825 -1.0936439969842198 12.673713312731678 0 0 0
287 0 2 2.1 -21.830409302879723 -16.257727928491374 -17.721708483748618 0 0 0
152 0 1 -1.05 -21.900428630951513 -11.253503476503715 -22.7311666090548 0 0 0
1291 0 1 -1.05 -21.63119233584152 15.647768388346876 -1.9807377613633825 0 0 0
278 0 1 -1.05 -22.110582720455046 -11.380890364323266 -15.049804488924337 0 0 0
1439 0 2 2.1 -21.742647066961005 14.289268216434664 12.854347983451056 0 0 0
593 0 2 2.1 -21.819398644430038 -6.711410035450374 -10.163296030109931 0 0 0
737 0 2 2.1 -21.67122066182731 -6.630935548609251 5.203357985989683 0 0 0
998 0 1 -1.05 -21.751521050286613 3.8946112592411346 15.467079530105572 0 0 0
1147 0 1 -1.05 -21.662859598881667 15.695797038110172 -17.282210134371002 0 0 0
1021 0 1 -1.05 -21.498401336522672 22.459235265933977 -9.616136224194248 0 0 0
427 0 1 -1.05 -21.633560570622898 -14.695195238256225 -1.9118800998298298 0 0 0
157 0 1 -1.05 -21.58092701945923 -8.153434873968054 -9.500247182861576 0 0 0
1003 0 1 -1.05 -21.594403196297076 0.44659556778131204 13.292669623247896 0 0 0
1165 0 1 -1.05 -21.67015297914675 22.49568694584856 5.7544739011539185 0 0 0
877 0 1 -1.05 -21.473115841845047 7.139312604469637 20.983150195116252 0 0 0
445 0 1 -1.05 -21.57604501154837 -8.162637126611846 20.865818500113633 0 0 0
1309 0 1 -1.05 -21.602398892414456 22.40368647112603 20.990290061325723 0 0 0
733 0 1 -1.05 -21.539892133266168 7.277708343680711 5.618667322467491 0 0 0
589 0 1 -1.05 -21.664416695334335 7.062924803132329 -9.617534033561915 0 0 0
859 0 1 -1.05 -21.7314353097746 0.4400890778124307 -2.0679395538761582 0 0 0
301 0 1 -1.05 -21.54116256609266 -8.22371866267621 5.748597507291187 0 0 0
1435 0 1 -1.05 -21.59833865783326 15.7379182136375 13.54323926853521 0 0 0
715 0 1 -1.05 -21.6235008487726 0.41422662400644583 -17.04743955046632 0 0 0
571 0 1 -1.05 -21.668260890805684 -14.978282789970423 13.459840215051301 0 0 0
283 0 1 -1.05 -21.716134247497582 -14.705169290277999 -17.23308920850992 0 0 0
441 0 1 -1.05 -21.501995081344774 -10.347109264971213 10.344765868100176 0 0 0
1017 0 1 -1.05 -21.450614103549743 20.471788005144568 -20.146597841327516 0 0 0
1431 0 1 -1.05 -21.42698410145289 17.957732380108816 18.16443218044926 0 0 0
279 0 1 -1.05 -21.684590032439445 -12.520905993640453 -12.532580218314111 0 0 0
729 0 1 -1.05 -21.28514074950473 5.096515239057332 -4.861357369702489 0 0 0
153 0 1 -1.05 -21.563609864829687 -10.046015502490489 -20.338977116494068 0 0 0
297 0 1 -1.05 -21.595203197006974 -10.190692955578646 -4.892203476253044 0 0 0
873 0 1 -1.05 -21.24186710980331 5.035782983727838 10.257770514010211 0 0 0
1161 0 1 -1.05 -21.371022996492865 20.344238014575552 -4.925221191232627 0 0 0
567 0 1 -1.05 -21.441868792456095 -12.766840131593758 17.99285447029095 0 0 0
1143 0 1 -1.05 -21.37244942950126 17.875027916944006 -12.666296746611682 0 0 0
855 0 1 -1.05 -21.4964815510081 2.5111640537725926 2.7123305467864505 0 0 0
999 0 1 -1.05 -21.312641768351813 2.707663836303027 17.98557471834841 0 0 0
1287 0 1 -1.05 -21.350213407141062 17.93172465023531 2.7048237046924974 0 0 0
585 0 1 -1.05 -21.53036088104321 5.068527903005659 -20.237050254862414 0 0 0
423 0 1 -1.05 -21.570489425223467 -12.664182679207803 2.7223526794457307 0 0 0
711 0 1 -1.05 -21.52776222563396 2.9058647226924847 -12.569649744463828 0 0 0
1305 0 1 -1.05 -21.41898338754315 20.21668410944327 10.451118474474669 0 0 0
1374 0 2 2.1 -20.98053715156206 18.676448209108685 21.917152830768984 0 0 0
505 0 1 -1.05 -20.942439595187665 -9.104792656647923 8.057381298152453 0 0 0
631 0 1 -1.05 -21.081405954513134 1.525911671179319 -14.78881976988887 0 0 0
1063 0 1 -1.05 -21.14360901676853 16.779894446592102 -15.021422067963652 0 0 0
217 0 1 -1.05 -21.139780226382747 -8.866687982930678 -22.67201096106697 0 0 0
343 0 1 -1.05 -20.992472541045554 -13.79170502037755 0.43031641049184444 0 0 0
1068 0 2 2.1 -20.984489985248256 19.42629183085174 -16.53930519926334 0 0 0
775 0 1 -1.05 -21.21091421991979 1.37476146177438 0.34468073889650697 0 0 0
654 0 2 2.1 -20.983531922409867 3.471077778992683 -8.64141197415676 0 0 0
780 0 2 2.1 -21.198373632716976 4.191908799829498 -1.0397403846538715 0 0 0
649 0 1 -1.05 -21.218565582127365 6.390875496133667 -22.498893884635592 0 0 0
361 0 1 -1.05 -21.111543390759465 -8.822082555740897 -7.081237072282278 0 0 0
1225 0 1 -1.05 -20.91705312105325 21.55570186321099 -7.190229039721084 0 0 0
1086 0 2 2.1 -21.00988408863209 18.845470312078938 -8.867599113583012 0 0 0
1351 0 1 -1.05 -20.917485210034062 16.714432931763334 15.861139984495871 0 0 0
1081 0 1 -1.05 -21.02311482490483 21.700244072308543 -22.51509913493437 0 0 0
366 0 2 2.1 -21.281448459794174 -11.881529125881015 6.52763108146328 0 0 0
937 0 1 -1.05 -20.868545073547665 6.211892793057206 7.8533216938432595 0 0 0
798 0 2 2.1 -20.93283934948801 3.4523654655425418 6.4342227260637195 0 0 0
793 0 1 -1.05 -20.966279722215404 6.346315163338673 -7.221906948019678 0 0 0
348 0 2 2.1 -21.187977395322964 -11.076408718814783 -1.045495729347195 0 0 0
510 0 2 2.1 -20.942968901048037 -11.84996663414562 21.90589183517355 0 0 0
636 0 2 2.1 -21.027523198081894 4.226302788130479 -16.412495400150473 0 0 0
1230 0 2 2.1 -21.008982487017057 18.77841048305914 6.5478629815944345 0 0 0
199 0 1 -1.05 -21.144732071632912 -13.710855933017474 -14.86774087859939 0 0 0
492 0 2 2.1 -21.068430406916644 -11.25417674591109 14.155591758572008 0 0 0
942 0 2 2.1 -20.963643830977308 3.4841685842126857 21.867147378922184 0 0 0
1212 0 2 2.1 -20.90377842342685 19.407742674695804 -1.1944518985103478 0 0 0
1356 0 2 2.1 -20.810991232514613 19.412346089931162 14.27803994161556 0 0 0
1207 0 1 -1.05 -20.84676564794152 16.61388815213889 0.37810682159820885 0 0 0
487 0 1 -1.05 -21.016725171279862 -14.022400277006767 15.79739868670012 0 0 0
1369 0 1 -1.05 -21.092054902314228 21.51658139264235 8.132578625077045 0 0 0
924 0 2 2.1 -20.94351195647814 4.2619500822837715 14.144352608737172 0 0 0
204 0 2 2.1 -21.340080695070704 -10.94664080256141 -16.43020683440548 0 0 0
919 0 1 -1.05 -21.015040513311206 1.4393631530120103 15.64914706567837 0 0 0
222 0 2 2.1 -21.199328772603497 -11.74060832355108 -8.603679853599392 0 0 0
874 0 1 -1.05 -20.48983249183991 6.642753485664908 12.245569817359183 0 0 0
1288 0 1 -1.05 -20.616783968735362 16.300473199021184 4.58606907901078 0 0 0
1144 0 1 -1.05 -20.670891077679048 16.30939090328004 -10.715786486078093 0 0 0
568 0 1 -1.05 -20.61618605494836 -14.293227746854932 19.9340866468769 0 0 0
424 0 1 -1.05 -20.594173366505657 -14.257722938589636 4.674421639034783 0 0 0
730 0 1 -1.05 -20.51643971363688 6.762457710543451 -2.854258633485223 0 0 0
1292 0 1 -1.05 -22.76012404231933 14.021753082269448 -3.8104321530521545 0 0 0
284 0 1 -1.05 -22.826267224103674 -16.355855749220137 -19.01627608899576 0 0 0
860 0 1 -1.05 -22.739992199942318 -1.1656356940825674 -3.907240444212693 0 0 0
1022 0 1 -1.05 -22.763381901532675 8.716643372773799 -11.544666437392316 0 0 0
442 0 1 -1.05 -20.81347475657618 -8.72665972671225 12.312057470655745 0 0 0
856 0 1 -1.05 -20.644495077889648 0.8177504891261442 4.582067538610964 0 0 0
280 0 1 -1.05 -20.73455836871916 -14.082485102164897 -10.639221552603857 0 0 0
586 0 1 -1.05 -20.62120399446039 6.729299850942869 -18.376427814640085 0 0 0
1000 0 1 -1.05 -20.440750902997294 0.9579395549403316 19.820139139417847 0 0 0
298 0 1 -1.05 -20.80392895896537 -8.574861595798446 -2.9663334842406996 0 0 0
154 0 1 -1.05 -20.72041666463775 -8.492449512698595 -18.37427380430576 0 0 0
1432 0 1 -1.05 -20.581868020576636 16.19097802669401 19.87521487891693 0 0 0
1018 0 1 -1.05 -20.870165350542838 22.123308079499708 -18.196315818614714 0 0 0
712 0 1 -1.05 -20.684095703922797 1.1800725708369377 -10.84092075266613 0 0 0
653 0 2 2.1 -20.461664545917632 6.392162462814024 -8.717050784733528 0 0 0
1306 0 1 -1.05 -20.517036852166765 21.902812629561183 12.140452266296577 0 0 0
779 0 2 2.1 -20.67353048559471 1.216291511485057 -1.1314716008344625 0 0 0
1355 0 2 2.1 -20.400273941147685 16.50905685276571 14.344385958487585 0 0 0
509 0 2 2.1 -20.426612174495702 -8.94086549332132 21.785688411722703 0 0 0
203 0 2 2.1 -20.63901535148234 -13.850992053741157 -16.432922321491315 0 0 0
1162 0 1 -1.05 -20.612111230475346 22.055231211070137 -3.0423941534419825 0 0 0
1373 0 2 2.1 -20.4424438548382 21.630343204203683 21.83779676612128 0 0 0
1211 0 2 2.1 -20.463817937322183 16.46943895294747 -1.1407798001825071 0 0 0
1229 0 2 2.1 -20.575842498252893 21.73300321674966 6.618165385318925 0 0 0
365 0 2 2.1 -20.422426786140967 -8.997689663770082 6.551586340119243 0 0 0
1067 0 2 2.1 -20.545971465077542 16.524135695209885 -16.507458943051873 0 0 0
1085 0 2 2.1 -20.372518516833562 21.715503602232964 -8.753966951181418 0 0 0
797 0 2 2.1 -20.429958883523938 6.451820918916763 6.366213529590418 0 0 0
651 0 1 -1.05 -20.378376860044078 4.869575173749396 -9.144803506268364 0 0 0
1209 0 1 -1.05 -20.362168038242764 17.993183616158277 -1.745283155623735 0 0 0
777 0 1 -1.05 -20.58027153496034 2.7824376608834456 -1.6117655745223232 0 0 0
452 0 1 -1.05 -19.02381061495117 -22.553817615029107 13.9225411619691 0 0 0
164 0 1 -1.05 -19.201746770606263 -22.45874234537312 -16.500047364658652 0 0 0
2882 0 1 -1.05 19.282959234655337 -22.780382730006657 8.815185921621897 0 0 0
1586 0 1 -1.05 3.698892923717583 -22.658889931215754 -6.403521463389843 0 0 0
2738 0 1 -1.05 19.143386488436704 -22.614807999459167 -6.429889254571702 0 0 0
1442 0 1 -1.05 3.803767199457514 -22.452146463236176 -21.659385206450477 0 0 0
434 0 1 -1.05 -11.407762331816878 -22.50604857806286 8.98280344190432 0 0 0
146 0 1 -1.05 -11.514479041138841 -22.630338408799737 -21.639116468147545 0 0 0
1730 0 1 -1.05 3.9993428545371863 -22.68212470173942 8.87839808068982 0 0 0
290 0 1 -1.05 -11.54665143178234 -22.612526242974997 -6.366205833682518 0 0 0
229 0 1 -1.05 -9.015516104320378 -22.427836927365984 -21.139257310795966 0 0 0
308 0 1 -1.05 -19.122616958438392 -22.550228898382727 -1.2508578093925422 0 0 0
450 0 2 2.1 -18.872812387079488 -21.968505006262653 20.9038818680476 0 0 0
162 0 2 2.1 -18.92189092233306 -21.713087987237905 -9.730093810860257 0 0 0
447 0 1 -1.05 -20.280118023903206 -21.51141116070727 20.32017965035459 0 0 0
303 0 1 -1.05 -20.30095903141194 -21.369106809083195 5.063162585361447 0 0 0
159 0 1 -1.05 -20.36671779944287 -21.301316637344218 -10.328725741814146 0 0 0
306 0 2 2.1 -18.870655792493938 -21.824182879794613 5.68969545619407 0 0 0
923 0 2 2.1 -20.459814258431315 1.2732348064392482 14.122388121480896 0 0 0
347 0 2 2.1 -20.488172331416564 -13.974254087329106 -1.0786544835462628 0 0 0
635 0 2 2.1 -20.529745708178673 1.177402257336695 -16.23319843210352 0 0 0
221 0 2 2.1 -20.45965172893005 -8.807844343646712 -8.525813310482084 0 0 0
941 0 2 2.1 -20.422664017912965 6.440419545007117 22.018524453314676 0 0 0
795 0 1 -1.05 -20.316877357709874 4.870128659090263 5.88598049772677 0 0 0
1065 0 1 -1.05 -20.348853367074497 18.025423647292165 -16.934610307865853 0 0 0
201 0 1 -1.05 -20.757423338971577 -12.313201092176097 -16.973444833517387 0 0 0
507 0 1 -1.05 -20.158692444160632 -10.485792740436587 21.44818156198209 0 0 0
219 0 1 -1.05 -20.401977653248718 -10.359592604001351 -8.989120508782085 0 0 0
1083 0 1 -1.05 -20.349611095306205 20.226437620170657 -9.281722979304615 0 0 0
345 0 1 -1.05 -20.466928425416672 -12.396238983282325 -1.556213415941638 0 0 0
921 0 1 -1.05 -20.30029523332714 2.7901356104662014 13.687609622558092 0 0 0
491 0 2 2.1 -20.460893057583547 -14.186620098324966 14.292871417328051 0 0 0
363 0 1 -1.05 -20.433621822880564 -10.53690672031862 6.085886441634411 0 0 0
489 0 1 -1.05 -20.284478955145346 -12.66016398967356 13.74147478359697 0 0 0
939 0 1 -1.05 -20.266474729840848 4.894027518470271 21.513188493150516 0 0 0
1023 0 1 -1.05 -20.36112736270203 8.981445156447627 -10.471897109964715 0 0 0
1311 0 1 -1.05 -20.191910913497146 9.15118015474151 20.19902174971744 0 0 0
1167 0 1 -1.05 -20.190385980480258 9.175299724133538 5.010047488534848 0 0 0
861 0 1 -1.05 -20.37219930737448 -1.6126512768360293 -2.637048382849045 0 0 0
591 0 1 -1.05 -20.244361304407057 -6.142795496879835 -10.344155489550213 0 0 0
1437 0 1 -1.05 -20.189232351777047 13.899983702085258 12.608410699209315 0 0 0
717 0 1 -1.05 -20.323888851923304 -1.527714593335915 -17.836992072493047 0 0 0
285 0 1 -1.05 -20.28305758183183 -16.68984762211065 -17.80765620090289 0 0 0
1149 0 1 -1.05 -20.247233238828514 13.837337897333157 -18.12910504650976 0 0 0
633 0 1 -1.05 -20.376799093836507 2.7585965486765573 -16.821090034309854 0 0 0
1371 0 1 -1.05 -20.38018351108287 20.078489369561233 21.420768343341898 0 0 0
1353 0 1 -1.05 -20.228147379523907 17.999657699232777 13.811613636268405 0 0 0
573 0 1 -1.05 -20.373776608223633 -16.99648899833701 12.8343115644399 0 0 0
735 0 1 -1.05 -20.19228524382251 -6.200221038288419 5.023109982051956 0 0 0
879 0 1 -1.05 -20.275685053096108 -6.148692221375747 20.158112993207766 0 0 0
429 0 1 -1.05 -20.386228009988184 -16.82038948577081 -2.532442019942458 0 0 0
1005 0 1 -1.05 -20.191463390658523 -1.5095518567727488 12.51241876463046 0 0 0
1293 0 1 -1.05 -20.24937573691113 13.621502872114348 -2.6372627357374228 0 0 0
1227 0 1 -1.05 -20.36280731525806 20.233177015749654 6.068936534418942 0 0 0
538 0 1 -1.05 -20.02754978506464 -9.961010248930178 14.319363206499752 0 0 0
1114 0 1 -1.05 -19.982673341639657 20.677721581097053 -16.361028841589352 0 0 0
826 0 1 -1.05 -20.003470680491994 5.269149819571684 -0.8455825402190804 0 0 0
1348 0 1 -1.05 -19.897880851301693 17.49756450670256 21.984676952209533 0 0 0
250 0 1 -1.05 -20.27399974128108 -9.788719488191404 -16.277319684348996 0 0 0
340 0 1 -1.05 -20.205797167176804 -13.07032097750313 6.83487905011086 0 0 0
484 0 1 -1.05 -19.935552201117375 -13.151775985823656 22.133988667528882 0 0 0
394 0 1 -1.05 -20.173453103528225 -9.81739048603476 -0.8479484516792724 0 0 0
196 0 1 -1.05 -20.086984324157896 -12.907199533271875 -8.472165780188154 0 0 0
970 0 1 -1.05 -19.92768083885046 5.4716272361082865 14.358640777962407 0 0 0
1204 0 1 -1.05 -19.86698983747008 17.611045439798765 6.690811218288456 0 0 0
916 0 1 -1.05 -19.86887145916388 2.2709628676702565 21.936377124769884 0 0 0
628 0 1 -1.05 -19.968157515561717 2.2520433007486993 -8.648851785629882 0 0 0
1060 0 1 -1.05 -19.96246095681254 17.663524556538952 -8.721528188885554 0 0 0
1258 0 1 -1.05 -19.80450717073171 20.58430919706494 -1.2177247983622195 0 0 0
1402 0 1 -1.05 -19.753465612832475 20.656477824777234 14.218907207262752 0 0 0
682 0 1 -1.05 -20.059194999940495 5.414762458863436 -16.306722253906354 0 0 0
772 0 1 -1.05 -19.838337943046586 2.2769181985798035 6.600991457883087 0 0 0
918 0 2 2.1 -19.285734253739612 1.1307299983133703 21.002520873364873 0 0 0
630 0 2 2.1 -19.5152814833958 1.2556724092712557 -9.764356783589188 0 0 0
1206 0 2 2.1 -19.389860968241226 16.45957834510883 5.706477277480236 0 0 0
396 0 2 2.1 -19.615932922705607 -8.735421156878928 -1.8850951517669543 0 0 0
198 0 2 2.1 -19.545698264996783 -14.023820178143286 -9.474817489764327 0 0 0
774 0 2 2.1 -19.44398173314884 0.9922711399521376 5.6583052395639974 0 0 0
1350 0 2 2.1 -19.38906923204582 16.282962334245994 20.977481158856158 0 0 0
486 0 2 2.1 -19.41212725242666 -14.25364338086652 21.035165883043597 0 0 0
972 0 2 2.1 -19.317264432519703 6.58254061110469 13.383879166306528 0 0 0
828 0 2 2.1 -19.421851286270037 6.4858962961273505 -1.7054485178254168 0 0 0
342 0 2 2.1 -19.464640638074414 -14.111188521106518 5.86588085426288 0 0 0
1260 0 2 2.1 -19.36808151922515 21.881680477378637 -2.0635513686121847 0 0 0
252 0 2 2.1 -19.64040985339199 -8.620143248588652 -17.24475782770533 0 0 0
684 0 2 2.1 -19.513046852855606 6.645242539026835 -17.215285212621264 0 0 0
540 0 2 2.1 -19.635506868436885 -8.79042177991627 13.336039322204648 0 0 0
1062 0 2 2.1 -19.515297037325357 16.43971968466286 -9.623866738416284 0 0 0
1116 0 2 2.1 -19.51669710335978 21.992503605242263 -17.232287520126818 0 0 0
1404 0 2 2.1 -19.313197216252515 21.83987010813157 13.217535836807706 0 0 0
1082 0 1 -1.05 -19.12759081335251 22.74692083285474 -8.919244409868647 0 0 0
1064 0 1 -1.05 -19.208612701942602 15.553891758660981 -16.682411601865503 0 0 0
1118 0 1 -1.05 -19.15007899540905 15.052630769149964 -8.918847919136592 0 0 0
1370 0 1 -1.05 -19.105894910819696 22.405780979746602 21.59729938367485 0 0 0
776 0 1 -1.05 -19.379475308775717 0.2580365469211472 -1.2794691905775721 0 0 0
938 0 1 -1.05 -19.163386998985473 7.334871868918615 21.780379820259625 0 0 0
218 0 1 -1.05 -19.237073509820103 -7.791071162887043 -8.747598393496224 0 0 0
362 0 1 -1.05 -19.121938374810945 -8.125325121711665 6.2488666356149665 0 0 0
632 0 1 -1.05 -19.211947067874988 0.26006267368100566 -16.414766987515748 0 0 0
884 0 1 -1.05 -19.323933618659655 -7.358219969542278 13.987059541300354 0 0 0
506 0 1 -1.05 -19.16400312070612 -7.932495084770514 21.593891822165624 0 0 0
1208 0 1 -1.05 -19.200282603509027 15.555151346104267 -1.3080503300640451 0 0 0
920 0 1 -1.05 -19.238439663637234 0.3171845926614125 14.02343612101862 0 0 0
1226 0 1 -1.05 -19.272140870442446 22.588294371874646 6.4956950311817145 0 0 0
1352 0 1 -1.05 -19.15709427958954 15.557006952259435 14.114624327762144 0 0 0
650 0 1 -1.05 -19.140331894072844 7.360505012738177 -8.893643448048522 0 0 0
254 0 1 -1.05 -19.18249276968151 -15.347253921596963 -8.65146008172038 0 0 0
344 0 1 -1.05 -19.185313464833825 -14.930333207342434 -1.1714678252822388 0 0 0
488 0 1 -1.05 -19.180498324702338 -15.110062337075043 14.037966828700299 0 0 0
1028 0 1 -1.05 -19.190862520733297 7.951923909442343 -16.412769049492447 0 0 0
794 0 1 -1.05 -19.11122143235551 7.325529469282394 6.2479609427970395 0 0 0
1172 0 1 -1.05 -19.013012567309396 7.8133953246796715 -0.9009068841408272 0 0 0
686 0 1 -1.05 -19.11790624939565 -0.1608114968471206 -9.084530863290984 0 0 0
200 0 1 -1.05 -19.284580049189092 -14.721838784519507 -16.600099851973752 0 0 0
1406 0 1 -1.05 -18.93973585790224 14.898452624200871 21.67415074295615 0 0 0
974 0 1 -1.05 -18.923950379672682 -0.26733262385463163 21.74439835999069 0 0 0
398 0 1 -1.05 -19.030989468384785 -15.553000920686443 6.441575178354288 0 0 0
1316 0 1 -1.05 -19.01183332978525 8.081285855786394 13.871849444369737 0 0 0
740 0 1 -1.05 -19.27554190782576 -7.310746005740343 -1.0798983068589578 0 0 0
830 0 1 -1.05 -19.063409017975772 -0.34834398164177927 6.506882982034462 0 0 0
1262 0 1 -1.05 -19.145593347564226 15.005275136137293 6.366424502387527 0 0 0
542 0 1 -1.05 -19.043671206126966 -15.646065148482215 21.757076866936508 0 0 0
596 0 1 -1.05 -19.070983991078585 -7.355329835420717 -16.40750092682893 0 0 0
738 0 2 2.1 -18.79816994691829 -6.738508256338555 5.662145142387004 0 0 0
576 0 2 2.1 -18.89515988828872 -16.522291572272284 13.349850782710199 0 0 0
1296 0 2 2.1 -18.856762213755612 14.131800456006204 -1.997186989525371 0 0 0
432 0 2 2.1 -18.931622336114074 -16.387196316375096 -1.9045207773739428 0 0 0
1008 0 2 2.1 -18.824539486338875 -1.0940585981481696 13.287321339477948 0 0 0
594 0 2 2.1 -18.89400257637595 -6.4537637872586835 -9.547139947973802 0 0 0
1152 0 2 2.1 -18.812512847950334 14.159624162782684 -17.36040425684378 0 0 0
1170 0 2 2.1 -18.76387627601 8.809044673680415 5.636670723753099 0 0 0
1440 0 2 2.1 -18.723783908645437 14.257854798329141 13.296019968586307 0 0 0
864 0 2 2.1 -18.954539482377985 -1.1825309663732284 -1.913269563563727 0 0 0
882 0 2 2.1 -18.840132367764298 -6.51815315180966 20.84044239174625 0 0 0
288 0 2 2.1 -18.890436995253708 -16.186920777959184 -17.207123766499585 0 0 0
1314 0 2 2.1 -18.872844838752837 8.76137046297557 20.91917443841924 0 0 0
720 0 2 2.1 -18.855274265723452 -1.0785720428285899 -17.1345628884204 0 0 0
1026 0 2 2.1 -18.911328885619476 8.67964153050615 -9.68103818360761 0 0 0
430 0 1 -1.05 -18.373432735649132 -17.548594761512554 -0.8922720317834489 0 0 0
1006 0 1 -1.05 -18.389592742354903 -2.2972223783425285 14.280181301727687 0 0 0
2594 0 1 -1.05 19.0265304019199 -22.478945772394418 -21.678919727375455 0 0 0
2900 0 1 -1.05 11.386720358835035 -22.763199849044447 14.145914354217005 0 0 0
2756 0 1 -1.05 11.418656638213548 -22.671157485137137 -1.2069580629906866 0 0 0
1604 0 1 -1.05 -3.8357997475597863 -22.61312603873388 -1.2116343781135974 0 0 0
2612 0 1 -1.05 11.42535618616813 -22.601027937479017 -16.427836654361226 0 0 0
1748 0 1 -1.05 -3.7622395697124382 -22.676993212098427 14.074838084175056 0 0 0
2677 0 1 -1.05 21.389397303666698 -22.29595953127425 -20.852541687076858 0 0 0
535 0 1 -1.05 -16.64164963279502 -22.572211568588642 13.238519767511896 0 0 0
517 0 1 -1.05 -8.94797445494908 -22.488544612925494 9.466357355643254 0 0 0
2821 0 1 -1.05 21.544766367572258 -22.51223922095683 -5.837467372166813 0 0 0
2839 0 1 -1.05 13.81174530462917 -22.60803444801195 -1.8834362927693284 0 0 0